# vtk DataFile Version 2.0
sampleSurface
ASCII
DATASET POLYDATA
POINTS 34315 float
-560 -933.341 170.869 -606.667 -933.341 170.772 -653.334 -933.34 170.853 -653.334 -980.008
171.081 -653.334 -992.678 171.19 -560.001 -987.052 171.048 -466.668 -957.306 171.129
-466.668 -933.342 171.04 -513.334 -933.341 170.987 -4200 93.2081 166.847 -4200
72.3219 167.735 -4156.25 93.2095 167.727 -4106.62 186.595 164.826 -4200 186.592
163.84 -4106.62 116.442 167.756 -4013.26 186.611 166.466 -4013.26 153.336 167.554
-3952.74 186.621 167.238 0.0266686 186.648 166.128 0.0325928 139.978 165.458 0.0300696
93.3104 166.753 46.6991 93.3084 167.576 93.3657 93.3085 167.826 93.3702 139.973
167.544 93.3697 186.642 167.32 -4106.61 280.034 163.692 -4200 280.009 162.18
-4013.25 280.061 165.513 -3941.75 280.062 167.184 0.0123304 279.985 166.118 0.0175632
233.318 166.662 93.3682 233.314 167.061 93.3604 279.985 165.588 -4106.6 373.425
166.736 -4200 373.406 164.714 -4013.24 330.619 167.494 -4073.12 373.43 167.608
-0.000196207 373.321 165.822 -93.3366 373.315 166.444 -93.3361 326.649 166.629 -93.3321
279.985 166.622 -46.6594 279.985 166.189 93.3524 326.657 164.896 93.3446 373.327
164.417 -4106.6 406.677 167.561 -4166.59 466.769 167.278 -4200 466.769 166.29
-280.006 466.641 165.813 -373.343 466.644 166.247 -373.342 419.978 166.587 -373.341
373.313 167.123 -326.675 373.312 166.657 -280.007 373.311 166.618 -186.671 466.646
165.856 -233.34 373.311 166.458 -186.671 373.313 166.289 -93.3356 466.65 165.907
-140.004 373.314 166.334 -0.00167634 466.656 165.7 93.3412 419.995 164.538 93.338
466.662 164.716 -4200 513.112 167.15 -280.006 559.987 165.516 -326.675 559.988
165.306 -373.343 559.986 165.99 -373.344 513.315 166.075 -186.669 559.99 165.54
-233.337 559.99 165.626 -93.3341 559.993 165.427 -140.001 559.992 165.453 0.000468129
559.996 165.125 -46.6668 559.995 165.363 93.3372 513.33 164.752 93.3365 559.997
164.822 46.6685 559.997 165.057 -653.361 653.303 165.486 -653.367 606.628 165.952
-653.364 559.961 166.935 -606.692 559.965 165.883 -560.017 559.973 165.541 -560.012
606.647 165.829 -560.011 653.317 165.943 -560.006 699.989 165.849 -560.005 746.658
165.609 -606.674 746.656 165.9 -653.347 746.651 165.38 -653.356 699.976 165.446
280.035 839.985 166.454 233.365 839.989 166.427 186.691 839.993 165.284 186.689
793.326 165.102 186.688 746.658 165.82 233.362 746.652 166.256 280.035 746.648
166.517 326.705 746.644 167.28 373.374 746.643 167.565 373.377 793.308 166.92
373.373 839.979 166.652 326.703 839.983 166.688 -1120.03 880.477 169.389 -1172.88
839.987 170.04 -1166.69 839.987 170.009 -1120.03 839.982 169.657 -1026.71 933.301
168.008 -1093.42 933.302 168.745 -1073.36 839.983 169.256 -1026.7 839.98 168.729
-980.034 839.981 168.049 -933.368 839.981 167.294 -933.371 886.645 166.967 -933.372
933.31 166.655 -1120.04 1026.64 168.08 -1166.71 1026.65 167.161 -1203.91 1026.65
168.918 -1120.04 954.322 168.824 -1026.7 1026.64 166.802 -1073.36 1026.64 167.924
-933.366 979.978 166.304 -933.36 1026.65 165.915 -980.029 1026.65 166.414 -1213.38
1075.33 169.46 -1213.38 1119.99 169.246 -1239.02 1120 169.639 -4200 1213.37
165.713 -4200 1121.9 166.45 -4175.95 1213.37 167.165 -4200 1246.45 167.234
-93.3347 1306.67 164.092 -186.668 1306.67 163.96 -186.668 1260 164.027 -186.667
1213.33 163.808 -140 1213.33 164.233 -93.3328 1213.33 163.772 0.000468379 1306.67
164.823 -46.6655 1213.34 163.472 0.001636 1213.34 163.938 46.6688 1213.33 164.432
93.3361 1213.33 165.098 93.335 1260 165.248 93.3337 1306.67 164.358 -93.3352
1400 163.894 -140.003 1400 163.625 -186.669 1400 163.281 -186.669 1353.33
163.443 -0.0010574 1400 163.744 -46.6681 1400 163.911 93.333 1353.34 162.438
93.3326 1400 163.463 46.6656 1400 164.328 -560 1493.33 163.877 -513.333
1493.33 163.72 -466.666 1493.33 163.997 -466.666 1540 163.838 -466.666 1586.67
163.671 -513.333 1586.67 163.519 -560 1586.67 163.536 -560 1540 163.659
279.994 1680 163.184 233.326 1680 163.263 186.659 1680 161.674 186.66
1633.33 162.495 186.661 1586.67 162.98 233.329 1586.67 162.357 279.996 1586.67
163.101 373.333 1633.33 163.586 373.332 1680 163.526 326.662 1680 163.257
326.664 1586.67 163.273 373.333 1586.67 163.589 -1120.04 1693.46 169.561 -1132.94
1680.02 169.676 -1120.04 1680.02 169.501 -1026.71 1773.35 168.787 -1064.39 1773.35
169.243 -1073.37 1680.02 168.768 -1026.71 1680.02 168.068 -933.37 1773.35 167.601
-980.041 1773.35 168.336 -980.037 1680.02 167.296 -933.368 1680.02 166.361 -840.025
1773.35 165.838 -886.698 1773.35 166.758 -886.695 1680.02 165.124 -840.022 1680.01
164.289 -793.348 1680.01 163.642 -746.675 1680.01 163.105 -746.676 1726.67 162.913
-746.678 1773.34 163.274 -793.352 1773.34 164.914 -1026.7 1820.02 169.113 -1026.7
1866.68 169.406 -1056.37 1866.68 169.717 -3733.34 2053.19 167.963 -3738.52 2053.19
168.082 -3733.34 2048.09 168.163 -3722.37 2053.19 168.18 -3733.37 2146.54 165.825
-3779.57 2146.55 167.706 -3639.98 2146.52 166.002 -3639.97 2080.34 168.707 -3555.2
2146.5 168.702 -3359.92 2146.53 164.841 -3442.51 2146.5 168.179 -3359.95 2069.93
168.322 -3274.24 2146.58 167.942 -3733.38 2239.9 164.881 -3809.19 2239.89 167.832
-3640 2239.88 161.866 -3546.64 2239.86 162.101 -3546.64 2149.88 168.725 -3453.27
2239.86 162.118 -3453.31 2151.6 168.262 -3359.86 2239.91 164.786 -3301.55 2239.93
168.021 -93.3361 2240 161.759 -93.335 2193.33 161.543 -93.3345 2146.67 161.838
-46.6682 2146.67 161.988 -0.00255655 2146.67 161.545 -0.00516794 2193.33 160.939 -0.00804427
2240 161.625 -3920.04 2333.22 167.022 -3975.55 2333.22 167.381 -3920.04 2314.71
167.535 -3826.71 2333.24 166.263 -3826.72 2265.84 167.888 -3733.36 2333.25 163.591
-3640 2333.25 159.715 -3546.63 2333.25 158.911 -3453.25 2333.25 159.306 -3359.84
2333.26 165.009 -3298.57 2333.27 168.487 -93.3374 2333.33 162.835 -186.668 2333.33
160.071 -186.668 2286.67 160.89 -186.667 2240 161.433 -140.002 2240 161.494
-0.0111047 2286.66 162.612 -0.0118738 2333.33 161.386 -4106.67 2426.58 166.213 -4200
2426.59 165.876 -4200 2337.01 167.096 -4106.67 2358.16 167.475 -4013.35 2426.58
165.668 -4013.35 2344.94 167.38 -3920.03 2426.58 165.014 -3826.69 2426.6 163.587
-3733.35 2426.61 161.391 -3640 2426.61 158.199 -3546.63 2426.6 156.78 -3453.25
2426.6 157.996 -3359.85 2426.59 162.855 -3266.49 2426.58 168.017 -3266.49 2399.23
168.688 -3249.63 2426.58 168.853 -279.999 2426.67 161.089 -373.333 2426.67 160.923
-373.335 2380 161.092 -373.336 2333.33 161.331 -326.669 2333.33 161.698 -280.001
2333.33 161.782 -186.668 2426.67 159.878 -233.334 2333.33 160.989 -93.3343 2426.67
162.701 -0.00478621 2426.67 158.985 46.6521 2333.33 159.995 93.3214 2333.33 164.662
93.3226 2380 163.211 93.3257 2426.67 162.2 -4106.67 2519.95 163.978 -4200
2519.96 165.107 -4013.34 2519.95 162.141 -3920.02 2519.95 161.675 -3826.68 2519.95
161.261 -3733.34 2519.95 159.146 -3640 2519.95 156.439 -3546.63 2519.95 155.176
-3453.26 2519.95 156.92 -3359.87 2519.93 160.777 -3266.5 2519.91 165.723 -3199.34
2519.9 169.173 -1082.16 2519.96 166.789 -1093.21 2426.63 167.534 -1073.36 2426.63
167.438 -1026.69 2426.63 167.221 -1026.69 2473.3 166.919 -1026.69 2519.97 166.57
-373.326 2520 161.34 -466.658 2520 163.447 -466.661 2473.34 163.463 -466.666
2426.67 162.857 -420.001 2426.67 160.921 -279.997 2520 159.843 -186.665 2520
159.932 -93.3335 2520 162.393 0.00230709 2520 160.719 93.3354 2520 161.802
139.993 2426.67 161.487 186.663 2426.67 160.8 186.666 2473.33 160.673 186.668
2520 161.003 -4106.66 2613.31 162.466 -4200 2613.31 165.01 -4013.34 2613.3
159.571 -3920.02 2613.29 158.912 -3826.68 2613.29 158.818 -3733.35 2613.29 156.802
-3640 2613.29 154.504 -3546.64 2613.3 154.65 -3453.27 2613.3 156.294 -3359.91
2613.28 159.268 -3266.53 2613.24 162.469 -3173.18 2613.22 165.832 -3173.18 2545.89
169.213 -3100.1 2613.22 169.326 -1120.04 2613.31 165.875 -1133.02 2613.31 165.978
-1120.04 2589.53 166.146 -1026.69 2613.31 165.664 -933.35 2613.32 165.497 -980.021
2519.97 166.388 -933.351 2519.98 166.209 -840.008 2613.33 165.248 -886.682 2519.98
166.01 -840.011 2519.99 165.893 -746.668 2613.33 164.936 -793.342 2519.99 165.739
-746.673 2519.99 165.577 -653.329 2613.34 164.56 -700.003 2520 165.394 -653.333
2520 165.17 -559.99 2613.34 164.133 -606.664 2520 164.956 -559.995 2520
164.71 -466.654 2613.34 162.907 -513.327 2520 164.363 -373.325 2613.34 160.958
-279.997 2613.34 161.158 -186.668 2613.34 161.243 -93.3343 2613.34 162.592 -0.0019008
2613.34 161.593 93.3347 2613.34 161.559 186.668 2566.67 161.264 186.668 2613.33
161.183 -4106.67 2706.65 162.087 -4200 2706.65 164.513 -4013.35 2706.64 158.709
-3920.02 2706.62 156.108 -3826.69 2706.61 155.46 -3733.34 2706.61 154.256 -3639.99
2706.64 152.902 -3546.64 2706.65 154.19 -3453.29 2706.65 156.136 -3359.93 2706.64
157.863 -3266.58 2706.62 159.812 -3173.21 2706.58 162.424 -3079.85 2706.57 165.724
-3079.85 2634.77 169.238 -3013.15 2706.57 168.86 -1120.04 2706.66 165.972 -1149.11
2706.66 166.155 -1026.69 2706.66 164.452 -933.347 2706.67 164.935 -840.003 2706.67
164.218 -746.665 2706.68 164.166 -653.327 2706.68 163.799 -559.991 2706.68 163.382
-466.656 2706.67 162.774 -373.326 2706.67 161.257 -279.998 2706.67 160.626 -186.671
2706.67 161.68 -93.3354 2706.67 162.425 -0.00374975 2706.67 161.707 93.3335 2706.67
161.176 186.668 2660 160.87 186.668 2706.67 160.497 1586.7 2622.7 169.338
1505.3 2706.65 168.169 1493.38 2706.65 168.05 1493.37 2659.98 168.289 1493.36
2613.32 168.587 1540.03 2613.32 168.953 1586.7 2613.32 169.378 1606.78 2613.32
169.58 -4106.68 2799.98 162.444 -4200 2799.99 164.331 -4013.37 2799.97 157.852
-3920.04 2799.95 154.419 -3826.69 2799.95 153.011 -3733.33 2799.96 152.134 -3639.97
2799.98 153.118 -3546.62 2799.99 155.208 -3453.29 2799.99 157.112 -3359.95 2799.99
158.774 -3266.6 2799.98 160.658 -3173.24 2799.97 161.906 -3079.86 2799.96 163.983
-2986.51 2799.95 167.165 -2986.51 2764 168.299 -2964.93 2799.95 168.061 -1120.04
2800 165.955 -1168.51 2799.99 166.287 -1026.69 2800 165.421 -933.341 2800
164.034 -840 2800.01 163.534 -746.664 2800.01 163.032 -653.328 2800.01 162.882
[...]
CELL_DATA 32454
FIELD attributes 2
k 1 32454 float
0.145634 0.14708 0.482024 0.481853 0.377126 0.307874 0.15786 0.481032 0.376964 0.308899 0.154253
0.480974 0.377069 0.308317 0.161997 0.160493 0.481761 0.3774 0.135735 0.137207 0.139945
0.142711 0.14469 0.482042 0.133686 0.132058 0.130755 0.129491 0.128366 0.137433 0.120104
0.141498 0.144352 0.113402 0.113199 0.112207 0.117886 0.116903 0.115347 0.116551 0.482147
0.482245 0.116916 0.120984 0.127679 0.112923 0.11542 0.11981 0.0921716 0.109914 0.114659
0.0881006 0.0876415 0.0870576 0.0862306 0.085559 0.097283 0.224096 0.197285 0.22402 0.197181
0.176283 0.146695 0.136209 0.224132 0.197671 0.176778 0.160657 0.148243 0.138436 0.114565
0.308149 0.259759 0.224289 0.197599 0.176922 0.161724 0.152023 0.142232 0.105842 0.109872
0.481804 0.377185 0.308178 0.259799 0.224561 0.197602 0.176831 0.161268 0.151006 0.141159
0.131709 0.0942005 0.0954957 0.0978082 0.100023 0.103884 0.481834 0.377225 0.308361 0.260076
0.224563 0.19756 0.176909 0.16125 0.15057 0.141262 0.133401 0.101007 0.094501 0.0953601
0.0963095 0.097652 0.0986631 0.101134 0.102801 0.482344 0.377509 0.308366 0.259798 0.224092
0.19715 0.176534 0.160618 0.148815 0.141257 0.133574 0.126515 0.103958 0.102865 0.101536
0.100052 0.0983326 0.0978649 0.0972782 0.0969888 0.0971764 0.0980836 0.0989325 0.09984 0.100444
0.102104 0.103664 0.482369 0.377316 0.308007 0.259422 0.223797 0.196965 0.176337 0.160114
0.147582 0.13866 0.132968 0.127042 0.121725 0.10338 0.10325 0.102142 0.100867 0.0997045
0.0986744 0.0980137 0.0977277 0.0981615 0.0990311 0.0997516 0.100446 0.101113 0.102492 0.104031
0.157349 0.157699 0.482351 0.377155 0.30771 0.259131 0.223605 0.196818 0.176096 0.159711
0.146799 0.137143 0.130776 0.127943 0.123298 0.117353 0.103056 0.100654 0.0992548 0.0980318
0.0973353 0.0969222 0.0967121 0.0968342 0.0974456 0.0982542 0.0992427 0.099828 0.100551 0.101753
0.103219 0.163441 0.163027 0.482328 0.377077 0.307534 0.258956 0.223507 0.196754 0.175983
0.159559 0.146654 0.137186 0.131023 0.128109 0.122756 0.116786 0.101604 0.0992047 0.0977594
0.0967496 0.0962628 0.0961103 0.0961142 0.096339 0.0968395 0.0974696 0.0985035 0.0989953 0.0997776
0.100945 0.102253 0.149588 0.155221 0.157767 0.482314 0.377027 0.30748 0.258957 0.223582
0.196841 0.176089 0.159725 0.147037 0.138645 0.131253 0.125443 0.119779 0.100821 0.100512
0.0993002 0.098873 0.0978705 0.0972276 0.0967844 0.0965472 0.0965492 0.0965779 0.0965746 0.096755
0.0973864 0.0980279 0.098543 0.0997261 0.100865 0.134643 0.145395 0.151136 0.154525 0.482237
0.376962 0.307479 0.25905 0.223727 0.196994 0.176295 0.16002 0.147465 0.139473 0.132345
0.12693 0.103207 0.102578 0.10346 0.10326 0.103277 0.10327 0.102988 0.102355 0.101741
0.101294 0.100777 0.100179 0.0997195 0.0995877 0.0997096 0.0998772 0.100579 0.101372 0.102195
0.114166 0.119331 0.129032 0.134967 0.139531 0.140693 0.482131 0.376885 0.307488 0.259216
0.223983 0.197232 0.176458 0.160196 0.147679 0.138905 0.13443 0.128487 0.122051 0.102329
0.101927 0.103078 0.105304 0.110234 0.111525 0.110292 0.108323 0.108232 0.10798 0.107349
0.106022 0.104579 0.10373 0.103262 0.102987 0.103203 0.103803 0.10428 0.105154 0.106626
0.107777 0.109187 0.110363 0.111223 0.112748 0.115743 0.122351 0.132952 0.138098 0.140366
0.48204 0.376835 0.30754 0.259425 0.224348 0.1977 0.177085 0.160773 0.147934 0.138303
0.132614 0.126559 0.121478 0.10094 0.101269 0.103322 0.107136 0.109487 0.109761 0.109376
0.109067 0.108781 0.107793 0.105732 0.104619 0.10339 0.102862 0.102801 0.103007 0.103508
0.10409 0.104999 0.106195 0.106948 0.108085 0.109278 0.110561 0.112699 0.11694 0.126341
0.133438 0.138896 0.481938 0.376835 0.307693 0.259718 0.224735 0.198255 0.178876 0.162302
0.148107 0.137789 0.130944 0.126816 0.122556 0.118615 0.112045 0.110292 0.107318 0.105366
0.103891 0.103587 0.103729 0.103784 0.104061 0.104771 0.105553 0.106301 0.107137 0.108126
0.109546 0.112069 0.117172 0.127864 0.134586 0.139149 0.481827 0.376907 0.307981 0.260089
0.225113 0.198773 0.180695 0.164806 0.150806 0.138302 0.128053 0.120452 0.116031 0.112917
0.114073 0.109797 0.107035 0.106253 0.106309 0.106096 0.105891 0.106232 0.106672 0.107225
0.107782 0.108563 0.10995 0.112676 0.118367 0.130074 0.136141 0.13941 0.481752 0.376994
0.308254 0.260393 0.225325 0.199015 0.18115 0.165813 0.152825 0.118128 0.113434 0.110091
0.108918 0.108903 0.108614 0.108374 0.108514 0.108803 0.109275 0.109698 0.110476 0.111915
0.114853 0.121136 0.133645 0.139195 0.140558 0.48168 0.376947 0.308204 0.260283 0.225104
0.198667 0.180333 0.165269 0.153038 0.114138 0.110515 0.109049 0.109126 0.108893 0.108708
0.108847 0.109053 0.109507 0.110009 0.110828 0.112381 0.115573 0.122378 0.13553 0.140916
0.481767 0.376924 0.308188 0.260323 0.225259 0.198996 0.180769 0.166442 0.15552 0.122863
0.117748 0.113529 0.11154 0.111367 0.111206 0.1109 0.110877 0.110931 0.111217 0.111683
0.112363 0.113808 0.116945 0.123688 0.136788 0.142114 0.482037 0.377108 0.307937 0.259927
0.224877 0.198361 0.178568 0.16587 0.154093 0.143869 0.126292 0.121145 0.116675 0.114401
0.114138 0.114096 0.113847 0.113674 0.113785 0.114121 0.114543 0.115132 0.11651 0.119485
0.125849 0.138674 0.144256 0.482221 0.377342 0.30813 0.260028 0.224923 0.198271 0.177796
0.163271 0.150863 0.141138 0.13248 0.123186 0.118369 0.114243 0.112262 0.112182 0.112359
0.112349 0.112205 0.112398 0.113058 0.113561 0.114106 0.115417 0.118172 0.12398 0.136006
0.142074 0.144404 0.482216 0.377674 0.30867 0.260466 0.22525 0.198549 0.177961 0.162473
0.151525 0.144996 0.137319 0.129976 0.122244 0.117481 0.113599 0.111802 0.111723 0.112094
0.112099 0.111777 0.111999 0.112544 0.113286 0.113811 0.114861 0.117098 0.121993 0.132492
0.139129 0.143293 0.482 0.377949 0.309465 0.261382 0.226166 0.199451 0.178785 0.162812
0.150906 0.14351 0.136504 0.130734 0.124306 0.117846 0.1169 0.11704 0.117953 0.117188
0.114551 0.110482 0.10758 0.106405 0.106724 0.107685 0.1079 0.107807 0.108267 0.10893
0.109876 0.11059 0.111801 0.113826 0.117896 0.127182 0.134373 0.139772 0.481927 0.37814
0.30983 0.261737 0.226495 0.199776 0.179094 0.163009 0.150693 0.142214 0.137883 0.132334
0.127294 0.120369 0.113286 0.11262 0.112861 0.114564 0.114266 0.111955 0.10902 0.106404
0.105288 0.105603 0.10653 0.106607 0.106448 0.106724 0.107233 0.108158 0.108828 0.109787
0.111544 0.114885 0.121857 0.132594 0.138047 0.139816 0.48682 0.382756 0.313518 0.264545
0.228319 0.200613 0.178869 0.161462 0.147292 0.13556 0.125816 0.117979 0.112803 0.108031
0.104328 0.100925 0.0972239 0.0774659 0.0753836 0.0734952 0.0724053 0.0725145 0.0792106 0.0920188
0.108173 0.126356 0.486784 0.382708 0.313459 0.264494 0.228272 0.200557 0.178809 0.161419
0.147277 0.135522 0.125728 0.117651 0.111309 0.106965 0.104401 0.10076 0.0971307 0.0939156
0.0911135 0.0750686 0.0730254 0.0714938 0.0710381 0.073451 0.0857911 0.105288 0.127232 0.151987
0.178824 0.486819 0.382735 0.313493 0.264542 0.228324 0.200603 0.178858 0.161512 0.147424
0.135679 0.125803 0.117503 0.110642 0.105164 0.101074 0.0981827 0.0959162 0.0948915 0.0923617
0.0891791 0.0852391 0.0813197 0.0776412 0.0744146 0.0716622 0.0695258 0.068271 0.0707522 0.0790972
0.094998 0.117473 0.144574 0.171246 0.204008 0.48703 0.383032 0.313805 0.264875 0.22865
0.200891 0.179104 0.161797 0.147826 0.136148 0.126203 0.117702 0.110476 0.104407 0.0994086
0.0954051 0.0922683 0.0902969 0.0887721 0.0869938 0.0845138 0.0820378 0.0795856 0.0775644 0.075068
0.074021 0.0737459 0.0741766 0.0794464 0.0907738 0.107292 0.127186 0.151792 0.179607 0.213317
0.487526 0.383705 0.314446 0.265449 0.229145 0.201292 0.179335 0.161726 0.147335 0.135368
0.125178 0.116418 0.108836 0.102296 0.0967033 0.0919626 0.0879422 0.0846646 0.0820749 0.0798522
0.0776648 0.0757268 0.073941 0.0722375 0.0709201 0.0701003 0.069848 0.0702176 0.0742992 0.0839176
0.0984338 0.115267 0.134143 0.159901 0.191091 0.48801 0.384447 0.315183 0.266014 0.229581
0.201624 0.179588 0.161896 0.14747 0.135497 0.125482 0.11701 0.109471 0.102774 0.0969365
0.0918587 0.0874517 0.0836257 0.0804093 0.0777116 0.0753551 0.073255 0.0713953 0.0697426 0.0683702
0.0673552 0.0667447 0.0667382 0.0699471 0.0779636 0.0906812 0.106142 0.123031 0.144821 0.170644
0.488093 0.384529 0.315351 0.266217 0.229762 0.201779 0.179721 0.161976 0.147433 0.135331
0.12525 0.116769 0.109383 0.102886 0.0972308 0.0922056 0.087678 0.0836617 0.0802029 0.0771707
0.0743805 0.0717579 0.0693678 0.0674121 0.0657842 0.0644495 0.0635113 0.0631364 0.0658848 0.0721349
0.0825699 0.0961775 0.112054 0.131299 0.157042 0.185499 0.487865 0.383933 0.314738 0.265785
0.229485 0.201594 0.179593 0.161884 0.147352 0.135209 0.12503 0.116471 0.109107 0.102775
0.0973701 0.0926805 0.0885103 0.0848269 0.0815424 0.0784863 0.0754137 0.0723357 0.0696695 0.0673914
0.065402 0.0637083 0.0624426 0.0621642 0.0642311 0.0686816 0.0763638 0.0877301 0.102009 0.119387
0.141717 0.165908 0.487797 0.383514 0.314254 0.265364 0.229143 0.20131 0.179342 0.161642
0.147087 0.134867 0.124533 0.115749 0.108233 0.101799 0.0962972 0.0915586 0.0874375 0.083867
0.080812 0.0780028 0.0750234 0.0720309 0.0693208 0.0669324 0.064881 0.0631477 0.061909 0.0618106
0.0630389 0.0658215 0.070882 0.0792723 0.0917759 0.107646 0.12715 0.147799 0.174966 0.487968
0.383724 0.3143 0.265312 0.229047 0.201198 0.179259 0.161608 0.147099 0.134901 0.124562
0.115744 0.108168 0.101635 0.0959898 0.0910989 0.0868925 0.0833083 0.0802971 0.0776298 0.0747938
0.0720297 0.0695379 0.06739 0.065553 0.0641318 0.0633273 0.0632607 0.064043 0.065867 0.0691859
0.0748625 0.0842489 0.0971998 0.113656 0.133812 0.155729 0.187017 0.488085 0.383939 0.314462
0.265347 0.22901 0.20117 0.179244 0.161599 0.1471 0.134917 0.124586 0.115763 0.108188
0.101663 0.0959798 0.0909626 0.0866257 0.0829077 0.0797134 0.0769262 0.0743528 0.0717944 0.0695174
0.0677452 0.0664832 0.0655808 0.0651555 0.0652857 0.0660421 0.0675625 0.0701382 0.074437 0.081272
0.0912034 0.104192 0.120111 0.140902 0.165557 0.488125 0.384084 0.31461 0.265452 0.229075
0.201216 0.179276 0.161629 0.147134 0.134951 0.124616 0.115794 0.108243 0.101783 0.0961087
0.0909571 0.0864747 0.0826157 0.0792626 0.0763379 0.0737203 0.0713613 0.069327 0.0677682 0.0666892
0.065918 0.0655563 0.0656682 0.0663214 0.0676804 0.0699212 0.0735152 0.0789011 0.086781 0.0974897
0.111127 0.128311 0.147071 0.488157 0.384247 0.314789 0.265644 0.229288 0.201419 0.179445
0.161773 0.147262 0.135065 0.124718 0.115897 0.108394 0.102057 0.0963525 0.0911499 0.0865936
0.0826205 0.0791497 0.0761088 0.0734459 0.0711323 0.0691938 0.0676842 0.0665891 0.0658216 0.0654306
0.0654648 0.0659843 0.0670833 0.0690268 0.0721174 0.0765735 0.0830821 0.0923571 0.104549 0.119184
0.136689 0.154853 0.487931 0.384078 0.314801 0.265818 0.229546 0.201693 0.179717 0.162022
0.147457 0.135212 0.124827 0.115983 0.108472 0.102121 0.0963959 0.0912132 0.0866491 0.0826409
0.0791434 0.0760818 0.0734172 0.0711238 0.0692139 0.0677028 0.0665752 0.0657831 0.065359 0.0653157
0.0656726 0.0666299 0.0683846 0.0711335 0.0750187 0.0806785 0.0886079 0.0996353 0.113067 0.127985
0.142865 0.163497 0.487405 0.383487 0.314337 0.265529 0.229402 0.201697 0.179824 0.162174
0.147597 0.135316 0.124911 0.116063 0.10852 0.102065 0.0963572 0.0912235 0.0867029 0.0827492
0.0792972 0.0762796 0.073643 0.0713824 0.0694867 0.0679531 0.0667738 0.0659179 0.0654229 0.0652809
0.0654797 0.066243 0.0677129 0.0700559 0.0734624 0.0783715 0.0853793 0.0954917 0.108168 0.122002
0.137974 0.155787 0.182238 0.487065 0.383081 0.313908 0.265072 0.228967 0.201373 0.179634
0.162103 0.147572 0.135294 0.124851 0.115961 0.108359 0.101801 0.0960576 0.0909824 0.0865373
0.0826361 0.0792336 0.076268 0.0736808 0.0714683 0.0696142 0.0681079 0.066934 0.0660734 0.0655624
0.0653172 0.0654173 0.0659866 0.067146 0.0690668 0.0719252 0.0760135 0.0820474 0.0910196 0.103117
0.116744 0.131786 0.15286 0.176369 0.48698 0.382989 0.313757 0.264815 0.22864 0.201006
0.179358 0.161951 0.147493 0.135251 0.1248 0.115865 0.108204 0.101577 0.095793 0.0907161
0.0862595 0.0823569 0.0789445 0.0759477 0.0733365 0.0710969 0.0692109 0.0676707 0.0664512 0.0655691
0.064984 0.064654 0.0646863 0.0651296 0.0660974 0.0677478 0.0700665 0.0734045 0.0784471 0.0861811
0.0973056 0.110629 0.125086 0.145452 0.16833 0.486973 0.383003 0.313767 0.264758 0.228506
0.200806 0.179163 0.161807 0.147398 0.135173 0.124714 0.115729 0.107997 0.101292 0.0954412
0.0903172 0.0858002 0.0818255 0.0783407 0.0752881 0.0726237 0.0703032 0.0683211 0.0666817 0.065354
0.0643871 0.0636609 0.0632177 0.0631254 0.0634346 0.0642313 0.0656039 0.067568 0.0703023 0.0744332
0.0814985 0.0960056 0.112085 0.129178 0.486833 0.382734 0.313527 0.264533 0.228269 0.200538
0.17886 0.161515 0.147129 0.134884 0.124398 0.115362 0.107555 0.100776 0.0948558 0.0896604
0.0850652 0.0810073 0.0774288 0.0742771 0.0715209 0.069091 0.0669683 0.0651785 0.0637091 0.0625309
0.0615713 0.0609238 0.0605655 0.0605836 0.0610497 0.0620462 0.0636319 0.0657566 0.0699342 0.0778072
0.0884879 0.102245 0.11854 0.486699 0.382432 0.313348 0.264526 0.228326 0.200482 0.178684
0.161252 0.146776 0.134424 0.123831 0.114753 0.106968 0.100231 0.0943586 0.0892264 0.0846975
0.0806891 0.0771534 0.0740307 0.0713239 0.0689476 0.0668368 0.0650308 0.0634795 0.0621563 0.0610529
0.0602146 0.0595248 0.0591066 0.0590607 0.0595175 0.0605259 0.0620418 0.0652905 0.0711558 0.0835938
0.0975541 0.486806 0.382352 0.313074 0.264217 0.22801 0.200175 0.178374 0.160921 0.146441
0.134088 0.123481 0.114336 0.106448 0.0995987 0.0936145 0.0883708 0.0837532 0.0796688 0.0760592
0.0728818 0.0701582 0.0677619 0.0656688 0.0638905 0.0623412 0.0610218 0.059901 0.0590351 0.058298
0.0576855 0.0583837 0.059723 0.061353 0.0632955 0.0658627 0.0690733 0.0781741 0.0890229 0.157821
0.487363 0.382901 0.313427 0.264373 0.22816 0.200384 0.178617 0.161147 0.146653 0.134347
0.123811 0.114726 0.106865 0.100019 0.0940259 0.0887505 0.084092 0.0799606 0.0763002 0.0730847
0.0702226 0.067668 0.0654448 0.0635812 0.0619016 0.0603921 0.0589992 0.0578393 0.05693 0.0562098
0.0566764 0.0581198 0.0625053 0.0653477 0.0680717 0.0716879 0.077129 0.0856152 0.0976568 0.139555
0.1518 0.487848 0.383664 0.314161 0.264978 0.228678 0.200935 0.179164 0.161651 0.147146
0.134889 0.124433 0.115441 0.10766 0.100887 0.0949597 0.0897498 0.0851588 0.0810918 0.0774874
0.0743004 0.0714537 0.0689126 0.0666951 0.0648273 0.0631379 0.0615748 0.0599908 0.0595532 0.058815
0.0582429 0.0578972 0.0584681 0.0613709 0.0635166 0.0656165 0.0684217 0.0728199 0.0802098 0.0924525
0.130395 0.139221 0.14815 0.48807 0.384052 0.314657 0.265529 0.229198 0.2014 0.179536
0.161926 0.147407 0.135178 0.124779 0.115866 0.108172 0.10149 0.0956514 0.0905353 0.0860448
0.0820868 0.0785809 0.0754845 0.0727518 0.0703403 0.0682378 0.0664121 0.0647577 0.0632939 0.0619324
0.0615892 0.061547 0.0625464 0.0625828 0.0624492 0.0629159 0.0640632 0.0658438 0.0681826 0.0712494
0.0758847 0.0834516 0.0943546 0.118889 0.17137 0.488134 0.384161 0.314809 0.265717 0.22939
0.201567 0.179659 0.162012 0.147485 0.135266 0.124888 0.116003 0.108341 0.101689 0.0958811
0.0908013 0.0863538 0.0824522 0.0790238 0.0760216 0.0734153 0.0711241 0.0690984 0.0672725 0.0666606
0.0655475 0.0647158 0.0639795 0.0639109 0.0652799 0.0659903 0.066413 0.0669001 0.0678998 0.0694538
0.0714541 0.074037 0.0737428 0.0790544 0.0853951 0.0920617 0.0997877 0.108957 0.488137 0.38417
0.314837 0.265764 0.229443 0.201616 0.1797 0.162052 0.147535 0.135321 0.124946 0.116064
0.108403 0.101753 0.0959509 0.090877 0.0864362 0.0825525 0.0791735 0.0762798 0.0738194 0.0729511
0.0711543 0.0693381 0.0676656 0.0676555 0.0672906 0.0670764 0.066807 0.06709 0.0680048 0.0692763
0.070653 0.0724524 0.0745545 0.0767024 0.0791478 0.0780381 0.0741078 0.07761 0.0839513 0.138809
0.488118 0.38415 0.314842 0.265787 0.229484 0.20167 0.179751 0.162105 0.147615 0.135422
0.125048 0.116159 0.108489 0.101835 0.0960367 0.0909649 0.0865263 0.0826554 0.0793228 0.0765946
0.0756583 0.0738536 0.0718248 0.0697365 0.0678558 0.0677197 0.067372 0.0675474 0.0682187 0.0690148
0.0698785 0.0708402 0.0717976 0.0730727 0.0747691 0.0767484 0.0795153 0.0789596 0.082264 0.0851635
0.0888505 0.0946033 0.120872 0.125818 0.488079 0.384117 0.31487 0.265849 0.229574 0.201768
0.179857 0.162218 0.147745 0.135579 0.125217 0.116326 0.108656 0.102009 0.0962203 0.0911596
0.0867362 0.0828914 0.07961 0.0770217 0.0762622 0.0747488 0.0742655 0.0724817 0.0705567 0.0688616
0.0678413 0.0674948 0.0676047 0.0681113 0.0695 0.0724164 0.0759506 0.0739955 0.0757674 0.0766907
0.0781364 0.0800931 0.0820659 0.08429 0.0873947 0.0928573 0.10421 0.119297 0.488048 0.384136
0.314966 0.265981 0.22972 0.201907 0.179995 0.162379 0.147935 0.135776 0.125412 0.116525
0.108859 0.102217 0.0964382 0.0913921 0.0869898 0.083177 0.079949 0.0774648 0.0768093 0.0754533
0.0750815 0.0735189 0.072256 0.07214 0.0729941 0.074088 0.0748294 0.074843 0.074351 0.074017
0.0740831 0.0725647 0.0737844 0.0757982 0.0815559 0.0863696 0.0909506 0.09522 0.0970148 0.105056
0.110672 0.488068 0.38429 0.315161 0.266164 0.229853 0.202019 0.180099 0.16247 0.147986
0.135805 0.125438 0.116541 0.108851 0.102167 0.0963521 0.0912812 0.0868658 0.083053 0.0798411
0.0773981 0.0768105 0.0755412 0.0753054 0.0739102 0.0725475 0.0715103 0.0708467 0.0707595 0.0716906
0.0739032 0.0723609 0.0743745 0.0762495 0.078252 0.0797788 0.0817706 0.0880224 0.0907771 0.0941566
0.104096 0.113186 0.124582 0.136733 0.48814 0.384513 0.315375 0.266277 0.229801 0.201874
0.179906 0.16223 0.147624 0.135345 0.124918 0.115943 0.108161 0.101374 0.0954256 0.0902026
0.0856385 0.0816795 0.0783093 0.0756553 0.0748986 0.0733773 0.0730754 0.0719033 0.0708133 0.0699693
0.0693965 0.0677267 0.0684645 0.0694603 0.0709908 0.0720093 0.0763291 0.0801746 0.0835901 0.102977
0.110283 0.1114 0.111875 0.113116 0.116837 0.121923 0.488182 0.384657 0.315468 0.266238
0.22971 0.201951 0.180152 0.162545 0.147733 0.135155 0.124497 0.115343 0.107406 0.10046
0.0943544 0.0889573 0.0841768 0.0800109 0.0764199 0.0734553 0.0724113 0.0703533 0.0695626 0.0679231
0.0662724 0.0648796 0.0640512 0.0615113 0.0620668 0.063159 0.0648881 0.066901 0.0729788 0.0792896
0.09005 0.0951089 0.121504 0.127695 0.132591 0.136746 0.488145 0.384617 0.315387 0.266091
0.22968 0.202367 0.181058 0.163437 0.14843 0.135608 0.124744 0.115445 0.107399 0.100358
0.0941569 0.0886547 0.0837506 0.0793743 0.075579 0.0723265 0.0695089 0.0683521 0.0658428 0.0634246
0.0612197 0.059304 0.0578006 0.0567315 0.0563773 0.0569437 0.0573221 0.0579745 0.0591458 0.124826
0.134803 0.143301 0.152202 0.488026 0.384428 0.315196 0.265968 0.2296 0.202444 0.181364
0.163626 0.148515 0.135611 0.124675 0.115334 0.107284 0.100291 0.0941345 0.0886567 0.0837646
0.0793758 0.0754365 0.072036 0.0690392 0.0662914 0.0637074 0.061389 0.0604857 0.0586087 0.0569739
0.0556477 0.0551425 0.0686265 0.0733256 0.0791051 0.12487 0.143021 0.487852 0.384194 0.315007
0.265858 0.229455 0.202203 0.18109 0.163386 0.148362 0.1356 0.124686 0.115355 0.107329
0.100384 0.0943179 0.0889265 0.0840859 0.0797337 0.075815 0.0723416 0.0692971 0.0665427 0.0640243
0.0616986 0.0607991 0.0599261 0.0594478 0.0585922 0.0564178 0.0584192 0.06094 0.0570604 0.0593662
0.0635429 0.0844467 0.0995592 0.209156 0.219515 0.487694 0.384032 0.314931 0.265849 0.229699
0.202611 0.181468 0.163718 0.148708 0.135994 0.125114 0.115767 0.107735 0.100795 0.0947568
0.0894354 0.084646 0.080318 0.0764245 0.0729137 0.0698454 0.0670976 0.0645746 0.0622593 0.061376
0.0605352 0.0611384 0.0797165 0.090982 0.100019 0.12576 0.137633 0.163121 0.176594 0.190381
0.203612 0.487597 0.383986 0.314959 0.265891 0.229944 0.203156 0.18197 0.164325 0.149439
0.136847 0.126028 0.116716 0.108671 0.101726 0.0956766 0.0903586 0.085559 0.0812061 0.0772998
0.073778 0.0706505 0.0678803 0.065311 0.0629866 0.0621334 0.0613639 0.0603667 0.0898977 0.0957315
0.104565 0.109748 0.11712 0.125848 0.135548 0.131956 0.172423 0.487577 0.384023 0.315034
0.266041 0.2304 0.203937 0.18277 0.16515 0.150267 0.137629 0.126801 0.117512 0.109419
0.102414 0.0963214 0.0909848 0.0861561 0.0817679 0.0778465 0.0743176 0.0711568 0.0684027 0.0658616